20
	Energy:      34.5265163
C          0.34824        0.04856        0.79545
C         -0.70409       -0.83764        0.16938
O          0.69507       -0.95904       -0.15689
C         -1.52746       -0.37440       -0.99687
C         -3.00941       -0.62990       -0.83684
C         -3.51087       -1.93383       -0.71441
C         -4.88773       -2.17131       -0.70440
C         -5.78027       -1.10721       -0.82454
C         -5.29724        0.19363       -0.93077
C         -3.92088        0.43369       -0.93203
H          0.63361       -0.12975        1.82452
H          0.42259        1.08221        0.48196
H         -1.12907       -1.64370        0.75040
H         -1.19872       -0.88469       -1.91064
H         -1.35359        0.69588       -1.16278
H         -2.83152       -2.78223       -0.65420
H         -5.26360       -3.18747       -0.62582
H         -6.85068       -1.29507       -0.84648
H         -5.99232        1.02387       -1.03394
H         -3.56637        1.45557       -1.04050
