7
	Energy:       6.0513309
C          0.31797        0.04521        0.75174
C         -0.70873       -0.82944        0.08884
O          0.68972       -0.96471       -0.19506
H         -1.33483       -0.39742       -0.68128
H          0.55480       -0.13498        1.79250
H          0.39689        1.07784        0.43682
H         -1.17693       -1.61025        0.67440
